cg 216 water
  216
    1SOL     OW    1   0.965   2.747   2.775 -0.0301 -0.0218 -0.0205
    2SOL     OW    2   0.561   1.385   1.338 -0.1645  0.2182 -0.0074
    3SOL     OW    3   0.804   2.434   2.296  0.1844  0.1935 -0.1613
    4SOL     OW    4   1.033   1.711   2.536  0.0943 -0.1128 -0.0027
    5SOL     OW    5   0.257   1.868   2.065  0.2358 -0.0144  0.0996
    6SOL     OW    6   0.794   2.313   1.277  0.2428 -0.0202  0.0500
    7SOL     OW    7   1.433   2.569   2.486  0.1433  0.1595 -0.2514
    8SOL     OW    8   0.099   1.851   2.620  0.0536 -0.2644 -0.4397
    9SOL     OW    9   2.202   1.931   1.140  0.6455  0.1343  0.3175
   10SOL     OW   10   0.336   0.226   2.233 -0.1965  0.0755 -0.3541
   11SOL     OW   11   0.355   0.393   1.194 -0.1413 -0.0231  0.0862
   12SOL     OW   12   2.146   2.328   0.320 -0.4490 -0.2412 -0.0785
   13SOL     OW   13   1.364   2.357   0.625 -0.1405  0.0516 -0.0783
   14SOL     OW   14   1.705   0.339   1.370  0.0486 -0.4088 -0.1302
   15SOL     OW   15   1.636   0.378   1.974 -0.1877 -0.1291  0.1788
   16SOL     OW   16   2.763   0.143   2.219 -0.0060  0.2746 -0.0038
   17SOL     OW   17   1.558   2.027   2.682  0.0797  0.2965 -0.1452
   18SOL     OW   18   2.320   2.695   2.048 -0.1780 -0.0991  0.1818
   19SOL     OW   19   2.046   0.667   1.854 -0.1844  0.0453 -0.3253
   20SOL     OW   20   0.849   1.652   1.751 -0.1359 -0.2499  0.0590
   21SOL     OW   21   1.351   1.261   1.840 -0.0917 -0.0896 -0.1142
   22SOL     OW   22   0.727   2.825   1.270 -0.0300 -0.5851 -0.0939
   23SOL     OW   23   1.563   1.132   1.367 -0.0600 -0.1044 -0.0300
   24SOL     OW   24   0.764   1.809   1.214 -0.0171 -0.2832  0.0885
   25SOL     OW   25   0.485   2.590   0.109 -0.3065  0.0948 -0.0340
   26SOL     OW   26   0.781   1.881   2.177  0.1489  0.0636  0.4327
   27SOL     OW   27   2.651   1.836   0.956  0.0300 -0.4186  0.1417
   28SOL     OW   28   0.880   1.425   0.908 -0.2261  0.0065  0.0330
   29SOL     OW   29   2.367   2.755   1.423  0.1881 -0.0506  0.1781
   30SOL     OW   30   1.602   0.064   2.413 -0.1618  0.0640  0.0869
   31SOL     OW   31   0.371   1.696   0.505 -0.1925 -0.0750  0.1223
   32SOL     OW   32   2.727   0.567   1.091  0.1176  0.0306 -0.0749
   33SOL     OW   33   2.450   1.782   2.710  0.0081 -0.0376  0.1649
   34SOL     OW   34   0.451   1.961   1.588 -0.3118 -0.1958 -0.1163
   35SOL     OW   35   0.772   1.291   0.378 -0.0996  0.0711  0.0779
   36SOL     OW   36   1.133   0.804   1.986  0.0697 -0.1405 -0.1032
   37SOL     OW   37   2.073   0.250   2.208  0.1632  0.1862 -0.3113
   38SOL     OW   38   1.406   1.584   1.042  0.2115 -0.0069 -0.0633
   39SOL     OW   39   2.634   1.140   0.643 -0.0843 -0.2484  0.1250
   40SOL     OW   40   2.516   0.732   2.123  0.0276 -0.0362  0.1780
   41SOL     OW   41   2.688   1.892   1.841  0.0199  0.3988  0.1992
   42SOL     OW   42   2.142   2.802   0.109  0.1923 -0.0092  0.2227
   43SOL     OW   43   0.195   0.883   1.172  0.2753  0.1120 -0.1411
   44SOL     OW   44   0.171   2.650   1.325  0.3086  0.1930 -0.0180
   45SOL     OW   45   1.760   2.231   2.261 -0.0920 -0.1168 -0.1651
   46SOL     OW   46   2.495   0.755   1.600 -0.2289 -0.2769  0.0190
   47SOL     OW   47   0.061   2.121   0.724  0.0337  0.1471  0.1930
   48SOL     OW   48   2.013   2.937   1.110  0.0423  0.2571  0.0740
   49SOL     OW   49   1.159   1.922   1.491  0.2195 -0.0541 -0.2544
   50SOL     OW   50   2.588   1.103   1.190 -0.3309 -0.2360 -0.0770
   51SOL     OW   51   0.363   2.162   1.166 -0.0451 -0.0579  0.0552
   52SOL     OW   52   0.031   0.291   0.770 -0.4060 -0.0900  0.0093
   53SOL     OW   53   1.052   2.211   2.669  0.0615  0.2108  0.1352
   54SOL     OW   54   1.249   1.873   0.099 -0.2713 -0.2570  0.1185
   55SOL     OW   55   1.292   2.883   0.810  0.0369  0.0398  0.0742
   56SOL     OW   56   1.223   0.230   1.804  0.0925  0.3143 -0.0675
   57SOL     OW   57   0.314   1.458   2.903  0.4242 -0.0798  0.2238
   58SOL     OW   58   0.633   0.112   0.012 -0.2088 -0.1026 -0.4721
   59SOL     OW   59   1.311   0.481   0.862 -0.1633  0.1801 -0.3638
   60SOL     OW   60   2.033   2.729   2.455 -0.2612  0.0185 -0.0982
   61SOL     OW   61   2.567   0.517   0.569 -0.1605  0.1326  0.0828
   62SOL     OW   62   2.111   0.287   0.349 -0.0057 -0.1388  0.1523
   63SOL     OW   63   2.626   0.882   0.220 -0.0136  0.0572 -0.0842
   64SOL     OW   64   2.137   0.889   2.342 -0.0547 -0.1599 -0.0590
   65SOL     OW   65   0.810   0.398   2.530 -0.0060  0.3954 -0.1316
   66SOL     OW   66   1.623   2.882   2.894 -0.0529 -0.1856  0.0298
   67SOL     OW   67   0.989   2.682   1.659 -0.2417  0.2674  0.5051
   68SOL     OW   68   1.714   0.727   1.017  0.3109  0.0012  0.2771
   69SOL     OW   69   2.546   2.519   0.035 -0.2033 -0.0725  0.0126
   70SOL     OW   70   1.291   1.292   2.393  0.1086  0.0963  0.0224
   71SOL     OW   71   2.947   1.830   1.369 -0.2341 -0.0861  0.2093
   72SOL     OW   72   1.097   1.368   1.438 -0.4825 -0.1731 -0.0915
   73SOL     OW   73   1.769   1.586   0.294 -0.2492 -0.1856  0.0923
   74SOL     OW   74   1.302   1.373   0.004 -0.0222  0.0815 -0.0661
   75SOL     OW   75   0.915   2.566   0.825  0.0554  0.1269 -0.0011
   76SOL     OW   76   1.213   0.560   1.373 -0.0666 -0.1787  0.0862
   77SOL     OW   77   0.232   1.142   2.411 -0.1060 -0.1005  0.0718
   78SOL     OW   78   0.818   0.321   1.498  0.2153 -0.0301 -0.0680
   79SOL     OW   79   2.417   2.305   2.554  0.4646  0.1892  0.1020
   80SOL     OW   80   1.318   0.884   2.750  0.1005 -0.2220 -0.1832
   81SOL     OW   81   2.081   1.895   0.026  0.2252 -0.1538  0.0460
   82SOL     OW   82   0.294   1.696   0.974  0.0952 -0.0754 -0.2703
   83SOL     OW   83   2.940   1.361   0.960  0.0495 -0.0009 -0.2161
   84SOL     OW   84   2.098   2.801   0.650  0.0679 -0.1368  0.0411
   85SOL     OW   85   1.981   2.375   2.802 -0.0412  0.0292  0.2341
   86SOL     OW   86   2.028   1.890   2.470 -0.0578 -0.0015  0.0396
   87SOL     OW   87   2.030   1.355   2.260 -0.0893  0.1099  0.0426
   88SOL     OW   88   0.630   2.909   1.969  0.0484 -0.2033  0.1216
   89SOL     OW   89   2.823   1.598   0.528  0.1155  0.0619  0.0338
   90SOL     OW   90   2.528   1.218   2.270 -0.0442  0.1587 -0.3417
   91SOL     OW   91   1.579   0.914   2.208  0.0150  0.0067 -0.1157
   92SOL     OW   92   0.035   1.284   1.489 -0.0493  0.0095 -0.2688
   93SOL     OW   93   1.585   2.040   1.139 -0.0370 -0.1283  0.1283
   94SOL     OW   94   2.844   1.439   2.594  0.0895  0.2500  0.0013
   95SOL     OW   95   2.887   2.739   0.816 -0.1183 -0.1379  0.0955
   96SOL     OW   96   1.041   2.887   2.243 -0.2777  0.1502  0.2965
   97SOL     OW   97   0.023   0.527   0.260  0.4085 -0.1761 -0.1114
   98SOL     OW   98   0.013   2.308   1.673 -0.1429 -0.0187 -0.1023
   99SOL     OW   99   2.245   2.152   2.063  0.2426 -0.2838  0.1477
  100SOL     OW  100   2.384   1.701   2.217 -0.0261 -0.1324  0.1093
  101SOL     OW  101   2.933   0.468   1.638  0.1378  0.2303 -0.3163
  102SOL     OW  102   2.051   0.882   1.418  0.0548 -0.0731  0.2606
  103SOL     OW  103   0.764   0.067   0.565 -0.1084  0.0398  0.2384
  104SOL     OW  104   1.247   0.423   2.310  0.1295  0.3805 -0.1613
  105SOL     OW  105   0.486   0.458   0.669  0.2903 -0.3568 -0.3118
  106SOL     OW  106   0.852   2.230   1.839  0.3385  0.3718  0.3089
  107SOL     OW  107   1.301   1.749   1.914 -0.2730  0.1820 -0.2417
  108SOL     OW  108   0.012   2.546   0.340 -0.2814 -0.0729 -0.1462
  109SOL     OW  109   1.268   2.242   2.157 -0.0872  0.3152 -0.0226
  110SOL     OW  110   2.344   1.456   0.831  0.1027  0.1393 -0.1521
  111SOL     OW  111   2.391   0.257   1.851  0.1741  0.1927 -0.3605
  112SOL     OW  112   1.777   1.068   2.652  0.0543 -0.1837 -0.1132
  113SOL     OW  113   1.344   1.348   0.524 -0.0937  0.1715  0.2095
  114SOL     OW  114   0.275   2.327   2.368  0.0470  0.0315 -0.2573
  115SOL     OW  115   1.616   1.636   1.484 -0.0781  0.3489  0.0573
  116SOL     OW  116   0.400   2.533   0.675  0.0460  0.1366  0.1254
  117SOL     OW  117   1.429   2.420   0.034 -0.0864 -0.1257  0.0873
  118SOL     OW  118   0.544   2.832   2.505  0.4939  0.0115 -0.1788
  119SOL     OW  119   2.863   1.495   2.074  0.1887  0.1535  0.0389
  120SOL     OW  120   0.013   0.638   2.251 -0.0332 -0.0049 -0.2641
  121SOL     OW  121   1.123   2.724   0.334 -0.1192 -0.1504  0.2039
  122SOL     OW  122   2.147   0.820   0.448 -0.1850  0.0460 -0.2370
  123SOL     OW  123   2.017   0.256   2.765  0.1933  0.2487 -0.1948
  124SOL     OW  124   1.651   0.539   0.035  0.0909 -0.1492 -0.2154
  125SOL     OW  125   2.207   1.324   2.775 -0.2279  0.1157 -0.3061
  126SOL     OW  126   2.217   2.462   1.013  0.4352 -0.0016 -0.3612
  127SOL     OW  127   0.197   2.714   1.992 -0.1965  0.0154  0.0456
  128SOL     OW  128   2.635   1.467   0.105 -0.2834 -0.1381 -0.1512
  129SOL     OW  129   2.441   0.451   2.552 -0.0137 -0.2512 -0.0573
  130SOL     OW  130   2.383   1.213   1.802 -0.0729  0.1122  0.0728
  131SOL     OW  131   2.046   0.027   1.669  0.0967 -0.0727  0.0648
  132SOL     OW  132   1.900   1.625   0.878  0.0826 -0.2346  0.3560
  133SOL     OW  133   1.899   2.512   1.853  0.1169 -0.1139  0.2152
  134SOL     OW  134   0.505   2.505   1.714 -0.1411  0.5017 -0.0470
  135SOL     OW  135   0.772   1.084   1.696 -0.2508 -0.0322 -0.2060
  136SOL     OW  136   1.711   1.089   0.188  0.1934  0.0865 -0.0254
  137SOL     OW  137   0.135   2.892   2.889 -0.1018  0.2398 -0.2360
  138SOL     OW  138   1.552   0.736   1.670  0.1773  0.0979 -0.0952
  139SOL     OW  139   0.860   0.258   1.015  0.0291 -0.1609  0.1177
  140SOL     OW  140   2.207   1.345   0.380  0.1991  0.1580  0.2364
  141SOL     OW  141   2.897   0.337   2.692  0.2218 -0.0320 -0.0287
  142SOL     OW  142   2.203   0.990   0.947  0.1984  0.0973 -0.2859
  143SOL     OW  143   2.480   0.062   0.962 -0.2178 -0.2698  0.2283
  144SOL     OW  144   2.766   2.031   2.312  0.1054  0.2061  0.0965
  145SOL     OW  145   2.682   1.994   0.120  0.0229 -0.1302 -0.3148
  146SOL     OW  146   2.525   0.410   0.089 -0.1649  0.4923  0.0416
  147SOL     OW  147   0.338   2.158   0.271 -0.2641  0.3118 -0.0917
  148SOL     OW  148   1.918   2.162   0.741  0.0552  0.1620  0.0350
  149SOL     OW  149   1.633   0.694   0.496 -0.0393 -0.1613 -0.0579
  150SOL     OW  150   0.115   1.227   0.358  0.0483  0.3873 -0.1902
  151SOL     OW  151   0.802   1.342   2.748  0.1495 -0.3048 -0.1687
  152SOL     OW  152   0.102   0.918   2.914 -0.0672 -0.0520  0.1797
  153SOL     OW  153   1.843   1.156   1.770 -0.1715 -0.0766 -0.0930
  154SOL     OW  154   2.847   0.085   1.271 -0.2987 -0.0891 -0.0708
  155SOL     OW  155   0.464   0.800   0.304 -0.0507 -0.0548  0.0236
  156SOL     OW  156   1.817   1.186   0.676  0.4064 -0.1650  0.0863
  157SOL     OW  157   0.507   0.830   2.150  0.2125 -0.1092  0.0920
  158SOL     OW  158   0.621   2.077   0.751  0.1363 -0.3089 -0.1170
  159SOL     OW  159   1.024   0.394   0.222 -0.2558 -0.1382 -0.0867
  160SOL     OW  160   1.697   2.625   0.930 -0.0353  0.2041  0.0039
  161SOL     OW  161   1.917   2.298   1.381 -0.2962 -0.0931 -0.1588
  162SOL     OW  162   1.288   1.022   0.964  0.0505  0.2217  0.4230
  163SOL     OW  163   0.834   0.964   1.201 -0.1618 -0.3909  0.3061
  164SOL     OW  164   1.439   0.196   0.343 -0.1167 -0.0631  0.2840
  165SOL     OW  165   1.742   1.551   2.746  0.2863 -0.0677 -0.0491
  166SOL     OW  166   2.210   0.465   0.916  0.1326  0.3612  0.1005
  167SOL     OW  167   0.430   1.226   0.748  0.0052  0.1349 -0.0116
  168SOL     OW  168   0.512   0.681   1.603 -0.0053  0.3830 -0.0679
  169SOL     OW  169   0.801   0.455   2.015 -0.0701 -0.3534  0.0976
  170SOL     OW  170   2.343   1.857   0.453  0.0844  0.0491  0.1129
  171SOL     OW  171   1.405   2.732   1.965 -0.2771  0.0209  0.1242
  172SOL     OW  172   0.520   2.121   2.764 -0.0345  0.1444  0.0454
  173SOL     OW  173   2.107   1.640   1.708  0.0199 -0.0685  0.3027
  174SOL     OW  174   2.938   2.726   2.455  0.1856 -0.2118 -0.1372
  175SOL     OW  175   1.266   2.458   1.201 -0.0361 -0.2515  0.1981
  176SOL     OW  176   0.112   0.873   1.829 -0.2605  0.0064  0.0140
  177SOL     OW  177   1.219   0.864   0.276  0.0797 -0.0536  0.1533
  178SOL     OW  178   1.261   0.052   1.351  0.1736 -0.2282 -0.0724
  179SOL     OW  179   1.483   1.817   0.627 -0.0056 -0.0748  0.0941
  180SOL     OW  180   0.114   0.804   0.664  0.1055  0.0761  0.3049
  181SOL     OW  181   2.697   2.458   2.041  0.0358 -0.0128  0.1071
  182SOL     OW  182   2.399   2.234   1.605  0.2263 -0.1465 -0.0123
  183SOL     OW  183   0.958   1.765   0.545  0.2904 -0.1472  0.0240
  184SOL     OW  184   2.330   0.364   1.383  0.2276  0.2367 -0.1970
  185SOL     OW  185   2.525   2.883   0.462 -0.0539 -0.0233 -0.2369
  186SOL     OW  186   1.732   2.092   0.270  0.1870 -0.0626  0.1445
  187SOL     OW  187   2.732   2.294   1.172 -0.2090 -0.0904  0.1490
  188SOL     OW  188   0.044   2.329   2.822 -0.1468 -0.1832  0.1443
  189SOL     OW  189   1.752   0.204   0.762  0.0766 -0.2587  0.0181
  190SOL     OW  190   0.790   0.830   2.926 -0.2651 -0.1896  0.2293
  191SOL     OW  191   1.419   2.296   1.687  0.1875 -0.2190 -0.1011
  192SOL     OW  192   0.323   0.074   1.599 -0.0721  0.0184 -0.0017
  193SOL     OW  193   1.815   1.997   1.865  0.1920  0.4707  0.0462
  194SOL     OW  194   1.698   2.735   1.455 -0.0598  0.4033 -0.0039
  195SOL     OW  195   1.592   1.716   2.275 -0.0773  0.2963  0.0411
  196SOL     OW  196   0.814   2.317   0.310 -0.1860  0.0554 -0.0186
  197SOL     OW  197   1.129   2.045   0.953 -0.0763  0.1704  0.1411
  198SOL     OW  198   1.763   0.559   2.485 -0.1019  0.2911  0.1996
  199SOL     OW  199   0.388   0.503   2.837 -0.1208  0.2318 -0.0136
  200SOL     OW  200   2.157   0.793   2.855 -0.0943  0.0578  0.0314
  201SOL     OW  201   2.659   0.883   2.642  0.0951 -0.0219  0.0767
  202SOL     OW  202   2.499   1.581   1.384  0.0468 -0.2609  0.2144
  203SOL     OW  203   0.318   0.031   0.377 -0.0092 -0.1242  0.0376
  204SOL     OW  204   0.709   1.772   0.104  0.1771 -0.0326  0.1051
  205SOL     OW  205   0.407   2.937   0.931  0.3461 -0.5508 -0.4213
  206SOL     OW  206   1.987   1.364   1.283 -0.0407 -0.0717 -0.2657
  207SOL     OW  207   1.738   2.662   0.398 -0.2239  0.1425 -0.0174
  208SOL     OW  208   0.911   0.868   0.665  0.0945  0.1986 -0.0849
  209SOL     OW  209   0.889   0.922   2.442  0.0378  0.0123 -0.1248
  210SOL     OW  210   0.470   1.571   2.404 -0.1427  0.1713  0.0164
  211SOL     OW  211   1.264   0.235   2.756 -0.1395  0.2311  0.1660
  212SOL     OW  212   0.843   1.333   2.211 -0.3683  0.1369  0.0785
  213SOL     OW  213   2.491   2.942   2.627  0.1403 -0.2071 -0.1293
  214SOL     OW  214   2.738   2.824   1.708 -0.0185 -0.0505 -0.1384
  215SOL     OW  215   0.382   1.335   1.952  0.2013  0.0067  0.0013
  216SOL     OW  216   2.558   2.353   0.607  0.1275 -0.0362  0.2711
   2.95268   2.95268   2.95268
